# vtk DataFile Version 3.0
vtk output
ASCII
DATASET POLYDATA
POINTS 12 float
81.9381 321.777 -866.95 79.8201 321.644 -868.03 77.4402 319.899 -869.176 
75.9726 317.67 -870.032 75.5031 314.467 -870.395 76.2527 311.058 -871.658 
79.967 308.651 -871.546 83.0505 310.107 -870.855 84.7373 312.654 -869.946 
85.7943 315.289 -868.445 85.8416 317.782 -867.149 84.1483 319.835 -866.812 

VERTICES 12 24
1 0 
1 1 
1 2 
1 3 
1 4 
1 5 
1 6 
1 7 
1 8 
1 9 
1 10 
1 11 

CELL_DATA 12
POINT_DATA 12
SCALARS scalars bit
LOOKUP_TABLE default
1 1 1 1 1 1 1 1
1 1 1 1 
