# vtk DataFile Version 3.0
vtk output
ASCII
DATASET POLYDATA
POINTS 13 float
148.778 289.953 -451.247 149.038 288.119 -455.343 150.133 287.511 -460.811 
152.043 287.115 -467.839 155.876 287.608 -474.673 157.237 290.816 -479.153 
155.639 294.693 -478.034 153.176 298.213 -474.502 153.255 298.419 -469.796 
153.279 297.766 -464.854 152.209 295.883 -461.021 150.847 294.024 -456.871 
150.137 292.701 -452.65 
VERTICES 13 26
1 0 
1 1 
1 2 
1 3 
1 4 
1 5 
1 6 
1 7 
1 8 
1 9 
1 10 
1 11 
1 12 

CELL_DATA 13
POINT_DATA 13
SCALARS scalars bit
LOOKUP_TABLE default
1 1 1 1 1 1 1 1
1 1 1 1 1 
