# vtk DataFile Version 3.0
vtk output
ASCII
DATASET POLYDATA
POINTS 10 float
114.913 276.992 -756.421 118.537 275.439 -749.503 119.157 274.766 -743.071 
118.832 274.259 -736.18 117.549 273.93 -729.627 117.065 273.615 -722.657 
117.923 272.891 -715.825 117.489 272.726 -708.57 117.813 272.264 -700.912 
117.151 272.204 -692.796 
VERTICES 10 20
1 0 
1 1 
1 2 
1 3 
1 4 
1 5 
1 6 
1 7 
1 8 
1 9 

CELL_DATA 10
POINT_DATA 10
SCALARS scalars bit
LOOKUP_TABLE default
1 1 1 1 1 1 1 1
1 1 
