# vtk DataFile Version 3.0
vtk output
ASCII
DATASET POLYDATA
POINTS 2 float
123.403 233.836 -738.159 125.803 234.028 -738.691 
VERTICES 2 4
1 0 
1 1 

CELL_DATA 2
POINT_DATA 2
SCALARS scalars bit
LOOKUP_TABLE default
1 1 
