# vtk DataFile Version 3.0
vtk output
ASCII
DATASET POLYDATA
POINTS 10 float
131.837 205.355 -393.132 133.717 202.386 -393.465 135.706 200.809 -394.882 
136.558 201.949 -398.664 135.426 205.089 -401.623 137.55 207.099 -404.116 
136.321 212.126 -406.478 132.757 214.094 -405.481 131.331 212.995 -401.142 
131.066 208.541 -394.732 
VERTICES 10 20
1 0 
1 1 
1 2 
1 3 
1 4 
1 5 
1 6 
1 7 
1 8 
1 9 

CELL_DATA 10
POINT_DATA 10
SCALARS scalars bit
LOOKUP_TABLE default
1 1 1 1 1 1 1 1
1 1 
