# vtk DataFile Version 3.0
vtk output
ASCII
DATASET POLYDATA
POINTS 40 float
122.397 192.971 -344.129 121.949 196.218 -340.785 120.521 201.663 -334.514 
119.346 206.324 -329.103 118.475 214.018 -323.375 118.996 222.458 -317.003 
120.631 228.558 -312.294 123.856 234.541 -306.231 127.155 239.024 -301.846 
132.382 244.94 -297.241 138.35 251.105 -293.772 144.084 256.326 -291.717 
147.236 259.303 -290.566 155.929 265.393 -290.696 162.276 268.169 -292.671 
168.332 270.664 -294.655 172.587 270.986 -299.379 172.513 268.991 -304.999 
173.278 268.384 -310.332 172.054 266.889 -315.844 170.446 265.859 -325.079 
169.65 264.12 -333.645 170.02 261.072 -342.151 169.546 257.783 -349.644 
170.093 255.247 -356.076 168.852 253.025 -361.645 166.413 249.927 -368.038 
165.333 248.155 -372.887 164.991 246.791 -376.602 162.985 244.748 -376.461 
155.905 238.788 -375.234 149.977 233.456 -374.009 144.983 227.329 -372.97 
139.911 218.903 -370.644 136.302 211.933 -368.887 132.951 204.726 -367.312 
129.779 199.622 -364.85 126.624 193.667 -361.364 124.344 191.006 -357.06 
122.671 190.029 -349.433 
VERTICES 40 80
1 0 
1 1 
1 2 
1 3 
1 4 
1 5 
1 6 
1 7 
1 8 
1 9 
1 10 
1 11 
1 12 
1 13 
1 14 
1 15 
1 16 
1 17 
1 18 
1 19 
1 20 
1 21 
1 22 
1 23 
1 24 
1 25 
1 26 
1 27 
1 28 
1 29 
1 30 
1 31 
1 32 
1 33 
1 34 
1 35 
1 36 
1 37 
1 38 
1 39 

CELL_DATA 40
POINT_DATA 40
SCALARS scalars bit
LOOKUP_TABLE default
1 1 1 1 1 1 1 1
1 1 1 1 1 1 1 1
1 1 1 1 1 1 1 1
1 1 1 1 1 1 1 1
1 1 1 1 1 1 1 1

