# vtk DataFile Version 3.0
vtk output
ASCII
DATASET POLYDATA
POINTS 7 float
129.064 261.538 -488.024 129.095 258.254 -485.727 130.524 265.441 -486.98 
133.19 267.398 -483.314 134.127 267.455 -478.682 134.009 267.064 -474.657 
133.928 265.091 -471.347 
VERTICES 7 14
1 0 
1 1 
1 2 
1 3 
1 4 
1 5 
1 6 

CELL_DATA 7
POINT_DATA 7
SCALARS scalars bit
LOOKUP_TABLE default
1 1 1 1 1 1 1 
