# vtk DataFile Version 3.0
vtk output
ASCII
DATASET POLYDATA
POINTS 22 float
201.158 311.867 -352.864 196.039 311.166 -354.546 191.657 306.781 -356.406 
188.161 306.624 -362.229 187.88 306.875 -368.024 190.208 313.651 -370.098 
193.928 321.628 -372.095 198.362 328.097 -375.97 199.721 331.095 -379.334 
201.018 334.142 -385.237 206.771 332.684 -392.164 210.628 332.881 -387.246 
209.559 331.782 -378.705 208.645 326.599 -371.717 202.202 323.782 -364.253 
202.78 316.918 -358.06 217.769 340.198 -410.447 225.206 338.918 -419.329 
228.025 339.996 -416.715 219.711 340.257 -393.555 215.114 335.48 -390.071 
227.394 340.367 -406.189 
VERTICES 22 44
1 0 
1 1 
1 2 
1 3 
1 4 
1 5 
1 6 
1 7 
1 8 
1 9 
1 10 
1 11 
1 12 
1 13 
1 14 
1 15 
1 16 
1 17 
1 18 
1 19 
1 20 
1 21 

CELL_DATA 22
POINT_DATA 22
SCALARS scalars bit
LOOKUP_TABLE default
1 1 1 1 1 1 1 1
1 1 1 1 1 1 1 1
1 1 1 1 1 1 
