# vtk DataFile Version 3.0
vtk output
ASCII
DATASET POLYDATA
POINTS 21 float
175.324 297.001 -307.467 174.112 294.81 -319.952 172.529 293.348 -326.895 
170.626 293.366 -337.072 168.847 293.286 -346.755 167.5 292.755 -355.286 
169.59 294.111 -363.101 172.887 295.776 -367.218 175.946 299.384 -368.322 
179.061 305.77 -364.35 181.176 308.09 -355.611 188.213 313.405 -349.215 
192.835 317.317 -348.002 194.365 319.331 -343.198 192.553 319.616 -337.958 
191.701 318.766 -333.252 190.572 316.549 -328.364 189.154 313.454 -322.966 
187.583 310.526 -318.109 186.049 308.263 -314.331 180.649 302.633 -309.639 

VERTICES 21 42
1 0 
1 1 
1 2 
1 3 
1 4 
1 5 
1 6 
1 7 
1 8 
1 9 
1 10 
1 11 
1 12 
1 13 
1 14 
1 15 
1 16 
1 17 
1 18 
1 19 
1 20 

CELL_DATA 21
POINT_DATA 21
SCALARS scalars bit
LOOKUP_TABLE default
1 1 1 1 1 1 1 1
1 1 1 1 1 1 1 1
1 1 1 1 1 
