# vtk DataFile Version 3.0
vtk output
ASCII
DATASET POLYDATA
POINTS 11 float
109.044 276.974 -562.365 107.715 278.183 -554.227 107.34 279.214 -546.039 
108.566 279.808 -538.146 107.919 280.829 -528.359 106.324 282.168 -518.036 
104.451 282.921 -508.502 103.741 283.333 -501.567 100.718 284.85 -492.179 
100.099 284.24 -483.969 98.9694 284.095 -477.153 
VERTICES 11 22
1 0 
1 1 
1 2 
1 3 
1 4 
1 5 
1 6 
1 7 
1 8 
1 9 
1 10 

CELL_DATA 11
POINT_DATA 11
SCALARS scalars bit
LOOKUP_TABLE default
1 1 1 1 1 1 1 1
1 1 1 
