# vtk DataFile Version 3.0
vtk output
ASCII
DATASET POLYDATA
POINTS 29 float
120.895 273.546 -735.126 120.454 272.796 -726.068 119.508 272.413 -714.459 
118.008 272.14 -699.501 117.501 271.994 -688.224 117.568 271.998 -674.96 
116.454 272.228 -663.327 115.737 272.315 -653.836 115.379 272.656 -641.926 
115.94 272.523 -631.788 113.297 272.629 -616.676 110.068 272.712 -603.167 
110.916 274.344 -586.832 110.801 275.91 -564.625 117.965 270.899 -565.025 
117.508 270.901 -580.105 119.833 268.073 -610.65 120.622 267.936 -627.397 
121.103 268.004 -639.838 121.684 268.118 -648.952 122.052 268.238 -658.114 
122.068 267.954 -668.571 123.361 268.115 -677.342 123.015 268.245 -688.857 
125.042 267.916 -704.017 125.966 268.716 -720.127 127.084 269.212 -729.913 
128.364 269.918 -738.281 124.992 272.036 -738.129 
VERTICES 29 58
1 0 
1 1 
1 2 
1 3 
1 4 
1 5 
1 6 
1 7 
1 8 
1 9 
1 10 
1 11 
1 12 
1 13 
1 14 
1 15 
1 16 
1 17 
1 18 
1 19 
1 20 
1 21 
1 22 
1 23 
1 24 
1 25 
1 26 
1 27 
1 28 

CELL_DATA 29
POINT_DATA 29
SCALARS scalars bit
LOOKUP_TABLE default
1 1 1 1 1 1 1 1
1 1 1 1 1 1 1 1
1 1 1 1 1 1 1 1
1 1 1 1 1 
