# vtk DataFile Version 3.0
vtk output
ASCII
DATASET POLYDATA
POINTS 17 float
103.486 278.636 -424.904 99.4408 279.09 -426.499 95.4468 279.854 -428.539 
92.8086 279.933 -430.381 89.0733 279.011 -435.173 86.4366 277.121 -440.375 
83.8438 272.744 -443.221 82.6276 267.761 -443.639 82.1669 262.906 -442.022 
83.3638 259.79 -437.551 84.0745 255.632 -434.542 86.1665 252.814 -434.311 
86.7066 257.819 -429.905 88.6607 266.726 -427.627 92.0222 272.347 -426.739 
96.6421 276.148 -426.575 100.156 277.149 -425.626 
VERTICES 17 34
1 0 
1 1 
1 2 
1 3 
1 4 
1 5 
1 6 
1 7 
1 8 
1 9 
1 10 
1 11 
1 12 
1 13 
1 14 
1 15 
1 16 

CELL_DATA 17
POINT_DATA 17
SCALARS scalars bit
LOOKUP_TABLE default
1 1 1 1 1 1 1 1
1 1 1 1 1 1 1 1
1 
