# vtk DataFile Version 3.0
vtk output
ASCII
DATASET POLYDATA
POINTS 7 float
84.9501 254.41 -456.317 84.5578 253.95 -443.324 84.3546 255.762 -434.295 
85.5948 261.579 -431.2 89.6771 268.362 -426.823 95.5168 272.264 -425.158 
104.29 276.194 -424.666 
VERTICES 7 14
1 0 
1 1 
1 2 
1 3 
1 4 
1 5 
1 6 

CELL_DATA 7
POINT_DATA 7
SCALARS scalars bit
LOOKUP_TABLE default
1 1 1 1 1 1 1 
