# vtk DataFile Version 3.0
vtk output
ASCII
DATASET POLYDATA
POINTS 38 float
165.075 287.35 -367.941 164.219 288.872 -362.127 164.668 288.991 -354.948 
165.83 288.668 -346.248 168.14 290.77 -340.72 170.503 291.144 -329.948 
171.634 290.79 -321.599 172.689 291.65 -312.844 172.705 292.918 -304.841 
169.921 291.253 -298.068 165.479 287.33 -293.951 157.826 282.197 -289.066 
147.402 274.843 -287.533 139.138 269.039 -287.569 129.987 261.424 -288.676 
118.504 251.04 -294.997 108.526 243.409 -302.829 104.484 236.994 -307.987 
101.909 231.583 -314.442 98.6383 223.315 -323.435 97.2812 215.46 -328.456 
103.232 203.475 -333.744 104.395 195.511 -338.68 108.955 199.592 -341.149 
107.874 214.178 -334.625 108.442 228.79 -326.545 115.688 236.686 -325.677 
121.766 242.545 -322.93 128.476 248.694 -319.537 137.952 256.724 -318.21 
143.215 260.486 -323.575 149.164 265.198 -331.718 151.574 267.73 -338.642 
153.2 269.774 -346.937 154.166 272.37 -353.88 154.753 274.738 -361.133 
157.321 278.385 -365.592 161.438 283.278 -367.117 
VERTICES 38 76
1 0 
1 1 
1 2 
1 3 
1 4 
1 5 
1 6 
1 7 
1 8 
1 9 
1 10 
1 11 
1 12 
1 13 
1 14 
1 15 
1 16 
1 17 
1 18 
1 19 
1 20 
1 21 
1 22 
1 23 
1 24 
1 25 
1 26 
1 27 
1 28 
1 29 
1 30 
1 31 
1 32 
1 33 
1 34 
1 35 
1 36 
1 37 

CELL_DATA 38
POINT_DATA 38
SCALARS scalars bit
LOOKUP_TABLE default
1 1 1 1 1 1 1 1
1 1 1 1 1 1 1 1
1 1 1 1 1 1 1 1
1 1 1 1 1 1 1 1
1 1 1 1 1 1 
