# vtk DataFile Version 3.0
vtk output
ASCII
DATASET POLYDATA
POINTS 7 float
109.843 192.02 -349.186 100.61 203.44 -332.039 98.2307 225.089 -319.709 
108.68 243.997 -300.374 136.449 267.343 -287.91 169.986 290.121 -300.437 
174.259 301.86 -354.246 
VERTICES 7 14
1 0 
1 1 
1 2 
1 3 
1 4 
1 5 
1 6 

CELL_DATA 7
POINT_DATA 7
SCALARS scalars bit
LOOKUP_TABLE default
1 1 1 1 1 1 1 
